 Gaussian 09, Revision A.02,
 Gaussian 09:  EM64L-G09RevA.02 11-Jun-2009

 --------------------------------------------------------------
 # stable=opt upbe1pbe/gen geom=allcheck pseudo=read guess=read
 --------------------------------------------------------------

 JAVYEK
 ------
 Z-Matrix taken from the checkpoint file:
 antiferro.chk
 Charge =  0 Multiplicity = 1

                         Standard orientation:
 ---------------------------------------------------------------------
 Center     Atomic      Atomic             Coordinates (Angstroms)
 Number     Number       Type             X           Y           Z
 ---------------------------------------------------------------------
      1         25           0       -1.357267   -0.000000   -0.000000
      2         25           0        1.357267   -0.000000   -0.000000
      3          8           0        0.000000    1.193234   -0.000000
      4          8           0       -2.683326   -1.372188   -0.300979
      5          8           0       -3.903421   -2.396617   -1.895904
      6          8           0       -0.000000   -1.193234   -0.000000
      7          8           0       -2.683327    1.372187    0.300978
      8          8           0        2.683327   -1.372187    0.300978
      9          8           0        2.683326    1.372188   -0.300979
     10          8           0       -3.903409    2.396626    1.895905
     11          8           0        3.903409   -2.396626    1.895905
     12          8           0        3.903421    2.396617   -1.895904
     13          7           0       -1.646571    0.291438   -1.963043
     14          7           0       -1.646572   -0.291438    1.963042
     15          7           0        1.646572    0.291438    1.963042
     16          7           0        1.646571   -0.291438   -1.963043
     17          6           0       -1.125070    1.286239   -2.685326
     18          6           0       -1.483839    1.452877   -4.016274
     19          6           0       -2.399787    0.570811   -4.587954
     20          6           0       -2.947315   -0.444153   -3.811365
     21          6           0       -2.551494   -0.543987   -2.486683
     22          6           0       -3.120527   -1.550857   -1.513903
     23          6           0       -1.125068   -1.286237    2.685327
     24          6           0       -2.551492    0.543990    2.486683
     25          6           0       -3.120533    1.550853    1.513900
     26          6           0        1.125068    1.286237    2.685327
     27          6           0        2.551492   -0.543990    2.486683
     28          6           0        1.125070   -1.286239   -2.685326
     29          6           0        2.551494    0.543987   -2.486683
     30          6           0        3.120533   -1.550853    1.513900
     31          6           0        3.120527    1.550857   -1.513903
     32          6           0       -1.483834   -1.452871    4.016276
     33          6           0       -2.947311    0.444158    3.811365
     34          6           0        1.483834    1.452871    4.016276
     35          6           0        2.947311   -0.444158    3.811365
     36          6           0        1.483839   -1.452877   -4.016274
     37          6           0        2.947315    0.444153   -3.811365
     38          6           0       -2.399780   -0.570804    4.587956
     39          6           0        2.399780    0.570804    4.587956
     40          6           0        2.399787   -0.570811   -4.587954
     41          1           0       -0.427159    1.930145   -2.159159
     42          1           0       -1.053575    2.268207   -4.587267
     43          1           0       -2.693157    0.686113   -5.627322
     44          1           0       -3.680705   -1.153071   -4.180184
     45          1           0       -0.427158   -1.930144    2.159160
     46          1           0        0.427158    1.930144    2.159160
     47          1           0        0.427159   -1.930145   -2.159159
     48          1           0       -1.053568   -2.268200    4.587270
     49          1           0       -3.680701    1.153076    4.180185
     50          1           0        1.053568    2.268200    4.587270
     51          1           0        3.680701   -1.153076    4.180185
     52          1           0        1.053575   -2.268207   -4.587267
     53          1           0        3.680705    1.153071   -4.180184
     54          1           0       -2.693149   -0.686105    5.627325
     55          1           0        2.693149    0.686105    5.627325
     56          1           0        2.693157   -0.686113   -5.627322
 ---------------------------------------------------------------------

 SCF Done:  E(UPBE1PBE) =  -2102.25841963     A.U. after   29 cycles

 Unable to determine electronic state:  an orbital has unidentified symmetry.
 Alpha  occ. eigenvalues --  -19.22257 -19.22255 -19.22243 -19.22239 -19.22238
 Alpha  occ. eigenvalues --  -19.22237 -19.19467 -19.19466 -19.19449 -19.19448
 Alpha  occ. eigenvalues --  -14.48175 -14.48174 -14.48032 -14.48031 -10.35019
 Alpha  occ. eigenvalues --  -10.35018 -10.35017 -10.35016 -10.31558 -10.31556
 Alpha  occ. eigenvalues --  -10.31539 -10.31538 -10.31451 -10.31450 -10.31432
 Alpha  occ. eigenvalues --  -10.31430 -10.29627 -10.29626 -10.29607 -10.29607
 Alpha  occ. eigenvalues --  -10.28639 -10.28639 -10.28621 -10.28621 -10.28129
 Alpha  occ. eigenvalues --  -10.28129 -10.28113 -10.28113  -3.51720  -3.35273
 Alpha  occ. eigenvalues --   -2.23885  -2.23849  -2.23834  -2.06606  -2.06317
 Alpha  occ. eigenvalues --   -2.05789  -1.09980  -1.09919  -1.09650  -1.09608
 Alpha  occ. eigenvalues --   -1.03876  -1.03646  -1.03549  -1.03380  -1.01038
 Alpha  occ. eigenvalues --   -1.00941  -1.00827  -1.00767  -0.95918  -0.93398
 Alpha  occ. eigenvalues --   -0.87427  -0.87407  -0.87372  -0.87318  -0.83870
 Alpha  occ. eigenvalues --   -0.83870  -0.83841  -0.83801  -0.71059  -0.71028
 Alpha  occ. eigenvalues --   -0.71022  -0.70910  -0.69582  -0.69533  -0.69410
 Alpha  occ. eigenvalues --   -0.69374  -0.62008  -0.61755  -0.61605  -0.61444
 Alpha  occ. eigenvalues --   -0.56927  -0.56564  -0.55701  -0.55592  -0.54940
 Alpha  occ. eigenvalues --   -0.54797  -0.54761  -0.54564  -0.52423  -0.52211
 Alpha  occ. eigenvalues --   -0.52017  -0.51866  -0.50224  -0.50115  -0.49872
 Alpha  occ. eigenvalues --   -0.49643  -0.49283  -0.49017  -0.48975  -0.48674
 Alpha  occ. eigenvalues --   -0.48310  -0.47954  -0.47827  -0.47160  -0.47064
 Alpha  occ. eigenvalues --   -0.45125  -0.44993  -0.44755  -0.44513  -0.44093
 Alpha  occ. eigenvalues --   -0.43381  -0.43262  -0.43047  -0.42858  -0.42569
 Alpha  occ. eigenvalues --   -0.42491  -0.42461  -0.42285  -0.42193  -0.41648
 Alpha  occ. eigenvalues --   -0.40524  -0.39382  -0.38539  -0.37101  -0.36509
 Alpha  occ. eigenvalues --   -0.35883  -0.35861  -0.35113  -0.34885  -0.34514
 Alpha  occ. eigenvalues --   -0.34403  -0.32737  -0.32577  -0.31947  -0.31379
 Alpha  occ. eigenvalues --   -0.31282  -0.31220  -0.31205  -0.31077  -0.30442
 Alpha  occ. eigenvalues --   -0.29603  -0.29288  -0.29167  -0.28981  -0.28579
 Alpha  occ. eigenvalues --   -0.27664  -0.27580  -0.27383  -0.27268
 Alpha virt. eigenvalues --   -0.11357  -0.09516  -0.09496  -0.07929  -0.07854
 Alpha virt. eigenvalues --   -0.07210  -0.06524  -0.06319  -0.05671  -0.05461
 Alpha virt. eigenvalues --   -0.05052  -0.04940  -0.04848  -0.03765  -0.00654

  Beta  occ. eigenvalues --  -19.22257 -19.22255 -19.22243 -19.22239 -19.22238
  Beta  occ. eigenvalues --  -19.22237 -19.19467 -19.19466 -19.19449 -19.19448
  Beta  occ. eigenvalues --  -14.48175 -14.48174 -14.48032 -14.48031 -10.35019
  Beta  occ. eigenvalues --  -10.35018 -10.35017 -10.35016 -10.31558 -10.31556
  Beta  occ. eigenvalues --  -10.31539 -10.31538 -10.31451 -10.31450 -10.31432
  Beta  occ. eigenvalues --  -10.31430 -10.29627 -10.29626 -10.29607 -10.29607
  Beta  occ. eigenvalues --  -10.28639 -10.28639 -10.28621 -10.28621 -10.28129
  Beta  occ. eigenvalues --  -10.28129 -10.28113 -10.28113  -3.51720  -3.35273
  Beta  occ. eigenvalues --   -2.23885  -2.23849  -2.23834  -2.06606  -2.06317
  Beta  occ. eigenvalues --   -2.05789  -1.09980  -1.09919  -1.09650  -1.09608
  Beta  occ. eigenvalues --   -1.03876  -1.03646  -1.03549  -1.03380  -1.01038
  Beta  occ. eigenvalues --   -1.00941  -1.00827  -1.00767  -0.95918  -0.93398
  Beta  occ. eigenvalues --   -0.87427  -0.87407  -0.87372  -0.87318  -0.83870
  Beta  occ. eigenvalues --   -0.83870  -0.83841  -0.83801  -0.71059  -0.71028
  Beta  occ. eigenvalues --   -0.71022  -0.70910  -0.69582  -0.69533  -0.69410
  Beta  occ. eigenvalues --   -0.69374  -0.62008  -0.61755  -0.61605  -0.61444
  Beta  occ. eigenvalues --   -0.56927  -0.56564  -0.55701  -0.55592  -0.54940
  Beta  occ. eigenvalues --   -0.54797  -0.54761  -0.54564  -0.52423  -0.52211
  Beta  occ. eigenvalues --   -0.52017  -0.51866  -0.50224  -0.50115  -0.49872
  Beta  occ. eigenvalues --   -0.49643  -0.49283  -0.49017  -0.48975  -0.48674
  Beta  occ. eigenvalues --   -0.48310  -0.47954  -0.47827  -0.47160  -0.47064
  Beta  occ. eigenvalues --   -0.45125  -0.44993  -0.44755  -0.44513  -0.44093
  Beta  occ. eigenvalues --   -0.43381  -0.43262  -0.43047  -0.42858  -0.42569
  Beta  occ. eigenvalues --   -0.42491  -0.42461  -0.42285  -0.42193  -0.41648
  Beta  occ. eigenvalues --   -0.40524  -0.39382  -0.38539  -0.37101  -0.36509
  Beta  occ. eigenvalues --   -0.35883  -0.35861  -0.35113  -0.34885  -0.34514
  Beta  occ. eigenvalues --   -0.34403  -0.32737  -0.32577  -0.31947  -0.31379
  Beta  occ. eigenvalues --   -0.31282  -0.31220  -0.31205  -0.31077  -0.30442
  Beta  occ. eigenvalues --   -0.29603  -0.29288  -0.29167  -0.28981  -0.28579
  Beta  occ. eigenvalues --   -0.27664  -0.27580  -0.27383  -0.27268
  Beta virt. eigenvalues --   -0.11357  -0.09516  -0.09496  -0.07929  -0.07854
  Beta virt. eigenvalues --   -0.07210  -0.06524  -0.06319  -0.05671  -0.05461
  Beta virt. eigenvalues --   -0.05052  -0.04940  -0.04848  -0.03765  -0.00654

 Mulliken atomic charges:
              1
     1  Mn   1.118074
     2  Mn   1.118073
     3  O   -0.657297
     4  O   -0.541440
     5  O   -0.464694
     6  O   -0.657297
     7  O   -0.541440
     8  O   -0.541440
     9  O   -0.541440
    10  O   -0.464695
    11  O   -0.464695
    12  O   -0.464694
    13  N   -0.540226
    14  N   -0.540226
    15  N   -0.540227
    16  N   -0.540226
    17  C    0.104066
    18  C   -0.155217
    19  C   -0.098923
    20  C   -0.129831
    21  C    0.207906
    22  C    0.646133
    23  C    0.104066
    24  C    0.207906
    25  C    0.646134
    26  C    0.104066
    27  C    0.207906
    28  C    0.104066
    29  C    0.207906
    30  C    0.646134
    31  C    0.646133
    32  C   -0.155217
    33  C   -0.129832
    34  C   -0.155217
    35  C   -0.129832
    36  C   -0.155217
    37  C   -0.129831
    38  C   -0.098924
    39  C   -0.098924
    40  C   -0.098923
    41  H    0.219515
    42  H    0.168198
    43  H    0.165997
    44  H    0.188129
    45  H    0.219515
    46  H    0.219515
    47  H    0.219515
    48  H    0.168199
    49  H    0.188129
    50  H    0.168199
    51  H    0.188129
    52  H    0.168198
    53  H    0.188129
    54  H    0.165997
    55  H    0.165997
    56  H    0.165997
 Sum of Mulliken atomic charges =  -0.00000

 Dipole moment (field-independent basis, Debye):
    X=              0.0000    Y=              0.0000    Z=              0.0000  Tot=              0.0000
 Quadrupole moment (field-independent basis, Debye-Ang):
   XX=           -289.6508   YY=           -266.3594   ZZ=           -133.8580
   XY=              0.0000   XZ=              0.0000   YZ=             -0.0000

 Normal termination of Gaussian 09 at Sun Nov 29 18:58:58 2020.
