 Gaussian 09, Revision A.02,
 Gaussian 09:  EM64L-G09RevA.02 11-Jun-2009

 ---------------------------------------------------------
 # opt upbe1pbe/gen geom=(allcheck) pseudo=read guess=read
 ---------------------------------------------------------

 JAVYEK
 ------
 Redundant internal coordinates taken from checkpoint file:
 antiferro.chk
 Charge =  0 Multiplicity = 1

 SCF Done:  E(UPBE1PBE) =  -2102.25863843     A.U. after    1 cycles

 Unable to determine electronic state:  an orbital has unidentified symmetry.
 Alpha  occ. eigenvalues --  -19.22218 -19.22216 -19.22203 -19.22199 -19.22197
 Alpha  occ. eigenvalues --  -19.22195 -19.19449 -19.19449 -19.19430 -19.19429
 Alpha  occ. eigenvalues --  -14.48157 -14.48156 -14.48016 -14.48015 -10.34999
 Alpha  occ. eigenvalues --  -10.34998 -10.34996 -10.34995 -10.31556 -10.31555
 Alpha  occ. eigenvalues --  -10.31538 -10.31537 -10.31437 -10.31436 -10.31418
 Alpha  occ. eigenvalues --  -10.31417 -10.29617 -10.29616 -10.29598 -10.29597
 Alpha  occ. eigenvalues --  -10.28632 -10.28632 -10.28615 -10.28614 -10.28120
 Alpha  occ. eigenvalues --  -10.28120 -10.28104 -10.28104  -3.51626  -3.35236
 Alpha  occ. eigenvalues --   -2.23792  -2.23757  -2.23756  -2.06577  -2.06308
 Alpha  occ. eigenvalues --   -2.05754  -1.09960  -1.09896  -1.09632  -1.09586
 Alpha  occ. eigenvalues --   -1.03863  -1.03631  -1.03544  -1.03375  -1.01015
 Alpha  occ. eigenvalues --   -1.00912  -1.00811  -1.00746  -0.96142  -0.93420
 Alpha  occ. eigenvalues --   -0.87423  -0.87402  -0.87370  -0.87316  -0.83860
 Alpha  occ. eigenvalues --   -0.83859  -0.83833  -0.83791  -0.71054  -0.71023
 Alpha  occ. eigenvalues --   -0.71011  -0.70901  -0.69578  -0.69531  -0.69406
 Alpha  occ. eigenvalues --   -0.69372  -0.61998  -0.61753  -0.61590  -0.61432
 Alpha  occ. eigenvalues --   -0.56925  -0.56551  -0.55691  -0.55584  -0.54940
 Alpha  occ. eigenvalues --   -0.54792  -0.54755  -0.54556  -0.52417  -0.52214
 Alpha  occ. eigenvalues --   -0.51992  -0.51862  -0.50229  -0.50103  -0.49860
 Alpha  occ. eigenvalues --   -0.49633  -0.49278  -0.49018  -0.48968  -0.48654
 Alpha  occ. eigenvalues --   -0.48297  -0.47950  -0.47821  -0.47192  -0.47073
 Alpha  occ. eigenvalues --   -0.45112  -0.45011  -0.44739  -0.44498  -0.44101
 Alpha  occ. eigenvalues --   -0.43345  -0.43241  -0.43091  -0.42842  -0.42552
 Alpha  occ. eigenvalues --   -0.42483  -0.42458  -0.42290  -0.42193  -0.41789
 Alpha  occ. eigenvalues --   -0.40535  -0.39385  -0.38598  -0.37134  -0.36492
 Alpha  occ. eigenvalues --   -0.35880  -0.35786  -0.35084  -0.34902  -0.34517
 Alpha  occ. eigenvalues --   -0.34398  -0.32753  -0.32543  -0.31904  -0.31371
 Alpha  occ. eigenvalues --   -0.31260  -0.31208  -0.31204  -0.31078  -0.30456
 Alpha  occ. eigenvalues --   -0.29601  -0.29255  -0.29118  -0.28966  -0.28571
 Alpha  occ. eigenvalues --   -0.27647  -0.27566  -0.27369  -0.27241
 Alpha virt. eigenvalues --   -0.11247  -0.09471  -0.09448  -0.07880  -0.07847
 Alpha virt. eigenvalues --   -0.07025  -0.06493  -0.06284  -0.05664  -0.05443
 Alpha virt. eigenvalues --   -0.05053  -0.04858  -0.04809  -0.03678  -0.00458

  Beta  occ. eigenvalues --  -19.22218 -19.22216 -19.22203 -19.22199 -19.22197
  Beta  occ. eigenvalues --  -19.22195 -19.19449 -19.19449 -19.19430 -19.19429
  Beta  occ. eigenvalues --  -14.48157 -14.48156 -14.48016 -14.48015 -10.34999
  Beta  occ. eigenvalues --  -10.34998 -10.34996 -10.34995 -10.31556 -10.31555
  Beta  occ. eigenvalues --  -10.31538 -10.31537 -10.31437 -10.31436 -10.31418
  Beta  occ. eigenvalues --  -10.31417 -10.29617 -10.29616 -10.29598 -10.29597
  Beta  occ. eigenvalues --  -10.28632 -10.28632 -10.28615 -10.28614 -10.28120
  Beta  occ. eigenvalues --  -10.28120 -10.28104 -10.28104  -3.51626  -3.35236
  Beta  occ. eigenvalues --   -2.23792  -2.23757  -2.23756  -2.06577  -2.06308
  Beta  occ. eigenvalues --   -2.05754  -1.09960  -1.09896  -1.09632  -1.09586
  Beta  occ. eigenvalues --   -1.03863  -1.03631  -1.03544  -1.03375  -1.01015
  Beta  occ. eigenvalues --   -1.00912  -1.00811  -1.00746  -0.96142  -0.93420
  Beta  occ. eigenvalues --   -0.87423  -0.87402  -0.87370  -0.87316  -0.83860
  Beta  occ. eigenvalues --   -0.83859  -0.83833  -0.83791  -0.71054  -0.71023
  Beta  occ. eigenvalues --   -0.71011  -0.70901  -0.69578  -0.69531  -0.69406
  Beta  occ. eigenvalues --   -0.69372  -0.61998  -0.61753  -0.61590  -0.61432
  Beta  occ. eigenvalues --   -0.56925  -0.56551  -0.55691  -0.55584  -0.54940
  Beta  occ. eigenvalues --   -0.54792  -0.54755  -0.54556  -0.52417  -0.52214
  Beta  occ. eigenvalues --   -0.51992  -0.51862  -0.50229  -0.50103  -0.49860
  Beta  occ. eigenvalues --   -0.49633  -0.49278  -0.49018  -0.48968  -0.48654
  Beta  occ. eigenvalues --   -0.48297  -0.47950  -0.47821  -0.47192  -0.47073
  Beta  occ. eigenvalues --   -0.45112  -0.45011  -0.44739  -0.44498  -0.44101
  Beta  occ. eigenvalues --   -0.43345  -0.43241  -0.43091  -0.42842  -0.42552
  Beta  occ. eigenvalues --   -0.42483  -0.42458  -0.42290  -0.42193  -0.41789
  Beta  occ. eigenvalues --   -0.40535  -0.39385  -0.38598  -0.37134  -0.36492
  Beta  occ. eigenvalues --   -0.35880  -0.35786  -0.35084  -0.34902  -0.34517
  Beta  occ. eigenvalues --   -0.34398  -0.32753  -0.32543  -0.31904  -0.31371
  Beta  occ. eigenvalues --   -0.31260  -0.31208  -0.31204  -0.31078  -0.30456
  Beta  occ. eigenvalues --   -0.29601  -0.29255  -0.29118  -0.28966  -0.28571
  Beta  occ. eigenvalues --   -0.27647  -0.27566  -0.27369  -0.27241
  Beta virt. eigenvalues --   -0.11247  -0.09471  -0.09448  -0.07880  -0.07847
  Beta virt. eigenvalues --   -0.07025  -0.06493  -0.06284  -0.05664  -0.05443
  Beta virt. eigenvalues --   -0.05053  -0.04858  -0.04809  -0.03678  -0.00458

 Mulliken atomic charges:
              1
     1  Mn   1.126045
     2  Mn   1.126045
     3  O   -0.661715
     4  O   -0.542145
     5  O   -0.464780
     6  O   -0.661715
     7  O   -0.542145
     8  O   -0.542145
     9  O   -0.542145
    10  O   -0.464780
    11  O   -0.464780
    12  O   -0.464780
    13  N   -0.540440
    14  N   -0.540440
    15  N   -0.540440
    16  N   -0.540440
    17  C    0.104053
    18  C   -0.155268
    19  C   -0.098954
    20  C   -0.129690
    21  C    0.208381
    22  C    0.645623
    23  C    0.104053
    24  C    0.208381
    25  C    0.645623
    26  C    0.104053
    27  C    0.208381
    28  C    0.104053
    29  C    0.208381
    30  C    0.645623
    31  C    0.645623
    32  C   -0.155268
    33  C   -0.129690
    34  C   -0.155268
    35  C   -0.129690
    36  C   -0.155268
    37  C   -0.129690
    38  C   -0.098954
    39  C   -0.098954
    40  C   -0.098954
    41  H    0.218877
    42  H    0.168114
    43  H    0.165965
    44  H    0.188099
    45  H    0.218876
    46  H    0.218876
    47  H    0.218877
    48  H    0.168114
    49  H    0.188099
    50  H    0.168114
    51  H    0.188099
    52  H    0.168114
    53  H    0.188099
    54  H    0.165965
    55  H    0.165965
    56  H    0.165965
 Sum of Mulliken atomic charges =  -0.00000

 Dipole moment (field-independent basis, Debye):
    X=              0.0000    Y=              0.0000    Z=             -0.0000  Tot=              0.0000
 Quadrupole moment (field-independent basis, Debye-Ang):
   XX=           -266.6072   YY=           -289.3195   ZZ=           -133.8176
   XY=              0.0000   XZ=             -0.0000   YZ=             -0.0000

 Optimization completed.
    -- Stationary point found.

                         Standard orientation:
 ---------------------------------------------------------------------
 Center     Atomic      Atomic             Coordinates (Angstroms)
 Number     Number       Type             X           Y           Z
 ---------------------------------------------------------------------
      1         25           0       -0.000000    1.360948   -0.000000
      2         25           0       -0.000000   -1.360948   -0.000000
      3          8           0       -1.177177   -0.000000   -0.000001
      4          8           0        1.378934    2.679604    0.297457
      5          8           0        2.406265    3.902155    1.888574
      6          8           0        1.177177    0.000000   -0.000001
      7          8           0       -1.378935    2.679603   -0.297457
      8          8           0        1.378935   -2.679603   -0.297457
      9          8           0       -1.378934   -2.679604    0.297457
     10          8           0       -2.406259    3.902163   -1.888571
     11          8           0        2.406259   -3.902163   -1.888571
     12          8           0       -2.406265   -3.902155    1.888574
     13          7           0       -0.289608    1.655191    1.960916
     14          7           0        0.289608    1.655192   -1.960917
     15          7           0       -0.289608   -1.655192   -1.960917
     16          7           0        0.289608   -1.655191    1.960916
     17          6           0       -1.283563    1.136094    2.686182
     18          6           0       -1.447180    1.496443    4.017116
     19          6           0       -0.562663    2.411467    4.586343
     20          6           0        0.452244    2.955666    3.807387
     21          6           0        0.548992    2.558074    2.483021
     22          6           0        1.557937    3.120840    1.509026
     23          6           0        1.283563    1.136097   -2.686184
     24          6           0       -0.548991    2.558077   -2.483021
     25          6           0       -1.557939    3.120839   -1.509026
     26          6           0       -1.283563   -1.136097   -2.686184
     27          6           0        0.548991   -2.558077   -2.483021
     28          6           0        1.283563   -1.136094    2.686182
     29          6           0       -0.548992   -2.558074    2.483021
     30          6           0        1.557939   -3.120839   -1.509026
     31          6           0       -1.557937   -3.120840    1.509026
     32          6           0        1.447180    1.496448   -4.017117
     33          6           0       -0.452243    2.955671   -3.807385
     34          6           0       -1.447180   -1.496448   -4.017117
     35          6           0        0.452243   -2.955671   -3.807385
     36          6           0        1.447180   -1.496443    4.017116
     37          6           0       -0.452244   -2.955666    3.807387
     38          6           0        0.562665    2.411474   -4.586342
     39          6           0       -0.562665   -2.411474   -4.586342
     40          6           0        0.562663   -2.411467    4.586343
     41          1           0       -1.929967    0.438153    2.163392
     42          1           0       -2.262074    1.067852    4.589989
     43          1           0       -0.675606    2.706164    5.625588
     44          1           0        1.163872    3.687395    4.174294
     45          1           0        1.929966    0.438155   -2.163395
     46          1           0       -1.929966   -0.438155   -2.163395
     47          1           0        1.929967   -0.438153    2.163392
     48          1           0        2.262074    1.067858   -4.589990
     49          1           0       -1.163872    3.687400   -4.174292
     50          1           0       -2.262074   -1.067858   -4.589990
     51          1           0        1.163872   -3.687400   -4.174292
     52          1           0        2.262074   -1.067852    4.589989
     53          1           0       -1.163872   -3.687395    4.174294
     54          1           0        0.675608    2.706172   -5.625587
     55          1           0       -0.675608   -2.706172   -5.625587
     56          1           0        0.675606   -2.706164    5.625588
 ---------------------------------------------------------------------

 Normal termination of Gaussian 09 at Tue Dec  1 12:22:26 2020.
