 Gaussian 09, Revision A.02,
 Gaussian 09:  EM64L-G09RevA.02 11-Jun-2009

 -------------------------------------------------------
 # opt upbe1pbe/gen geom=allcheck guess=read pseudo=read
 -------------------------------------------------------

 JAVYEK
 ------
 Redundant internal coordinates taken from checkpoint file:
 ferromagnetic.chk
 Charge =  0 Multiplicity = 7

 SCF Done:  E(UPBE1PBE) =  -2102.25543845     A.U. after    1 cycles

 The electronic state is 7-B.
 Alpha  occ. eigenvalues --  -19.22236 -19.22235 -19.22233 -19.22233 -19.22071
 Alpha  occ. eigenvalues --  -19.22067 -19.19449 -19.19449 -19.19449 -19.19449
 Alpha  occ. eigenvalues --  -14.48036 -14.48035 -14.48035 -14.48034 -10.35013
 Alpha  occ. eigenvalues --  -10.35012 -10.35012 -10.35011 -10.31566 -10.31565
 Alpha  occ. eigenvalues --  -10.31564 -10.31563 -10.31470 -10.31468 -10.31468
 Alpha  occ. eigenvalues --  -10.31467 -10.29640 -10.29640 -10.29640 -10.29639
 Alpha  occ. eigenvalues --  -10.28629 -10.28629 -10.28629 -10.28628 -10.28121
 Alpha  occ. eigenvalues --  -10.28121 -10.28121 -10.28121  -3.52009  -3.51978
 Alpha  occ. eigenvalues --   -2.24321  -2.24294  -2.24270  -2.24058  -2.23988
 Alpha  occ. eigenvalues --   -2.23890  -1.09988  -1.09942  -1.09646  -1.09639
 Alpha  occ. eigenvalues --   -1.03835  -1.03595  -1.03520  -1.03352  -1.01054
 Alpha  occ. eigenvalues --   -1.00966  -1.00824  -1.00819  -0.96147  -0.93634
 Alpha  occ. eigenvalues --   -0.87424  -0.87399  -0.87374  -0.87317  -0.83885
 Alpha  occ. eigenvalues --   -0.83884  -0.83855  -0.83814  -0.71077  -0.71040
 Alpha  occ. eigenvalues --   -0.71036  -0.70915  -0.69595  -0.69545  -0.69408
 Alpha  occ. eigenvalues --   -0.69379  -0.62026  -0.61784  -0.61649  -0.61489
 Alpha  occ. eigenvalues --   -0.56987  -0.56597  -0.55741  -0.55630  -0.55002
 Alpha  occ. eigenvalues --   -0.54911  -0.54870  -0.54672  -0.52528  -0.52341
 Alpha  occ. eigenvalues --   -0.52101  -0.52090  -0.50613  -0.50537  -0.50103
 Alpha  occ. eigenvalues --   -0.49665  -0.49474  -0.49188  -0.49056  -0.48912
 Alpha  occ. eigenvalues --   -0.48822  -0.48624  -0.48230  -0.47948  -0.47054
 Alpha  occ. eigenvalues --   -0.46194  -0.46069  -0.44995  -0.44647  -0.44642
 Alpha  occ. eigenvalues --   -0.44313  -0.43892  -0.43309  -0.43114  -0.42892
 Alpha  occ. eigenvalues --   -0.42840  -0.42742  -0.42570  -0.42446  -0.42274
 Alpha  occ. eigenvalues --   -0.42123  -0.41552  -0.41363  -0.40471  -0.40329
 Alpha  occ. eigenvalues --   -0.36928  -0.36924  -0.36588  -0.35913  -0.35344
 Alpha  occ. eigenvalues --   -0.34992  -0.34323  -0.34223  -0.34042  -0.32801
 Alpha  occ. eigenvalues --   -0.31850  -0.31400  -0.31289  -0.31242  -0.31119
 Alpha  occ. eigenvalues --   -0.30695  -0.29702  -0.29467  -0.29222  -0.29206
 Alpha  occ. eigenvalues --   -0.29098  -0.28722  -0.28281  -0.27556  -0.27311
 Alpha  occ. eigenvalues --   -0.27261  -0.27194
 Alpha virt. eigenvalues --   -0.11225  -0.10652  -0.08212  -0.07995  -0.07915
 Alpha virt. eigenvalues --   -0.07704  -0.07691  -0.06834  -0.05762  -0.05526
 Alpha virt. eigenvalues --   -0.05488  -0.05253   0.00129   0.01787   0.04277

  Beta  occ. eigenvalues --  -19.22215 -19.22214 -19.22212 -19.22212 -19.21855
  Beta  occ. eigenvalues --  -19.21851 -19.19432 -19.19432 -19.19432 -19.19432
  Beta  occ. eigenvalues --  -14.48181 -14.48180 -14.48180 -14.48180 -10.35014
  Beta  occ. eigenvalues --  -10.35014 -10.35013 -10.35013 -10.31543 -10.31542
  Beta  occ. eigenvalues --  -10.31542 -10.31540 -10.31449 -10.31448 -10.31448
  Beta  occ. eigenvalues --  -10.31447 -10.29619 -10.29619 -10.29619 -10.29619
  Beta  occ. eigenvalues --  -10.28648 -10.28648 -10.28647 -10.28647 -10.28138
  Beta  occ. eigenvalues --  -10.28138 -10.28138 -10.28138  -3.35280  -3.35239
  Beta  occ. eigenvalues --   -2.06680  -2.06392  -2.06360  -2.06143  -2.05884
  Beta  occ. eigenvalues --   -2.05811  -1.09944  -1.09897  -1.09602  -1.09595
  Beta  occ. eigenvalues --   -1.03921  -1.03699  -1.03614  -1.03455  -1.00997
  Beta  occ. eigenvalues --   -1.00915  -1.00761  -1.00756  -0.95499  -0.92938
  Beta  occ. eigenvalues --   -0.87446  -0.87431  -0.87401  -0.87348  -0.83873
  Beta  occ. eigenvalues --   -0.83872  -0.83844  -0.83805  -0.71058  -0.71035
  Beta  occ. eigenvalues --   -0.71027  -0.70921  -0.69589  -0.69541  -0.69423
  Beta  occ. eigenvalues --   -0.69392  -0.62003  -0.61741  -0.61574  -0.61427
  Beta  occ. eigenvalues --   -0.56881  -0.56551  -0.55675  -0.55578  -0.54820
  Beta  occ. eigenvalues --   -0.54785  -0.54623  -0.54548  -0.52323  -0.51975
  Beta  occ. eigenvalues --   -0.51973  -0.51802  -0.49885  -0.49823  -0.49764
  Beta  occ. eigenvalues --   -0.49632  -0.49073  -0.48816  -0.48387  -0.48291
  Beta  occ. eigenvalues --   -0.48114  -0.47851  -0.47628  -0.47098  -0.44863
  Beta  occ. eigenvalues --   -0.44686  -0.44553  -0.44485  -0.44276  -0.43072
  Beta  occ. eigenvalues --   -0.43048  -0.42754  -0.42733  -0.42518  -0.42452
  Beta  occ. eigenvalues --   -0.42249  -0.40725  -0.40299  -0.39400  -0.39199
  Beta  occ. eigenvalues --   -0.38508  -0.37437  -0.36598  -0.35907  -0.35498
  Beta  occ. eigenvalues --   -0.35023  -0.34828  -0.34444  -0.33138  -0.32948
  Beta  occ. eigenvalues --   -0.32672  -0.32296  -0.31551  -0.31432  -0.31319
  Beta  occ. eigenvalues --   -0.31184  -0.30984  -0.30503  -0.30234  -0.29094
  Beta  occ. eigenvalues --   -0.28909  -0.28580  -0.27708  -0.27614  -0.27436
  Beta  occ. eigenvalues --   -0.27401
  Beta virt. eigenvalues --   -0.10786  -0.10191  -0.08898  -0.08766  -0.07863
  Beta virt. eigenvalues --   -0.06558  -0.06350  -0.06163  -0.06020  -0.05351
  Beta virt. eigenvalues --   -0.05191  -0.05059  -0.04528  -0.04262  -0.03212

 Mulliken atomic charges:
              1
     1  Mn   1.125379
     2  Mn   1.125379
     3  O   -0.661589
     4  O   -0.542413
     5  O   -0.464948
     6  O   -0.661589
     7  O   -0.542414
     8  O   -0.542414
     9  O   -0.542413
    10  O   -0.464949
    11  O   -0.464949
    12  O   -0.464948
    13  N   -0.541904
    14  N   -0.541905
    15  N   -0.541905
    16  N   -0.541904
    17  C    0.104326
    18  C   -0.155141
    19  C   -0.098821
    20  C   -0.129852
    21  C    0.208244
    22  C    0.646240
    23  C    0.104326
    24  C    0.208244
    25  C    0.646241
    26  C    0.104326
    27  C    0.208244
    28  C    0.104326
    29  C    0.208244
    30  C    0.646241
    31  C    0.646240
    32  C   -0.155140
    33  C   -0.129852
    34  C   -0.155140
    35  C   -0.129852
    36  C   -0.155141
    37  C   -0.129852
    38  C   -0.098821
    39  C   -0.098821
    40  C   -0.098821
    41  H    0.219827
    42  H    0.168242
    43  H    0.166077
    44  H    0.188229
    45  H    0.219827
    46  H    0.219827
    47  H    0.219827
    48  H    0.168242
    49  H    0.188229
    50  H    0.168242
    51  H    0.188229
    52  H    0.168242
    53  H    0.188229
    54  H    0.166077
    55  H    0.166077
    56  H    0.166077
 Sum of Mulliken atomic charges =  -0.00000

 Dipole moment (field-independent basis, Debye):
    X=              0.0000    Y=             -0.0000    Z=             -0.0000  Tot=              0.0000
 Quadrupole moment (field-independent basis, Debye-Ang):
   XX=           -289.6939   YY=           -266.4572   ZZ=           -133.7379
   XY=              0.0000   XZ=              0.0000   YZ=              0.0000

 Optimization completed.
    -- Stationary point found.

                         Standard orientation:
 ---------------------------------------------------------------------
 Center     Atomic      Atomic             Coordinates (Angstroms)
 Number     Number       Type             X           Y           Z
 ---------------------------------------------------------------------
      1         25           0       -1.357267    0.000002   -0.000000
      2         25           0        1.357267   -0.000002   -0.000000
      3          8           0        0.000002    1.193234    0.000000
      4          8           0       -2.683328   -1.372184   -0.300979
      5          8           0       -3.903425   -2.396610   -1.895904
      6          8           0       -0.000002   -1.193234    0.000000
      7          8           0       -2.683325    1.372191    0.300978
      8          8           0        2.683325   -1.372191    0.300978
      9          8           0        2.683328    1.372184   -0.300979
     10          8           0       -3.903405    2.396633    1.895905
     11          8           0        3.903405   -2.396633    1.895905
     12          8           0        3.903425    2.396610   -1.895904
     13          7           0       -1.646571    0.291441   -1.963043
     14          7           0       -1.646572   -0.291435    1.963042
     15          7           0        1.646572    0.291435    1.963042
     16          7           0        1.646571   -0.291441   -1.963043
     17          6           0       -1.125068    1.286241   -2.685326
     18          6           0       -1.483837    1.452879   -4.016274
     19          6           0       -2.399786    0.570815   -4.587954
     20          6           0       -2.947316   -0.444148   -3.811365
     21          6           0       -2.551495   -0.543983   -2.486683
     22          6           0       -3.120530   -1.550852   -1.513903
     23          6           0       -1.125070   -1.286235    2.685327
     24          6           0       -2.551491    0.543994    2.486683
     25          6           0       -3.120530    1.550858    1.513900
     26          6           0        1.125070    1.286235    2.685327
     27          6           0        2.551491   -0.543994    2.486683
     28          6           0        1.125068   -1.286241   -2.685326
     29          6           0        2.551495    0.543983   -2.486683
     30          6           0        3.120530   -1.550858    1.513900
     31          6           0        3.120530    1.550852   -1.513903
     32          6           0       -1.483836   -1.452869    4.016276
     33          6           0       -2.947310    0.444163    3.811365
     34          6           0        1.483836    1.452869    4.016276
     35          6           0        2.947310   -0.444163    3.811365
     36          6           0        1.483837   -1.452879   -4.016274
     37          6           0        2.947316    0.444148   -3.811365
     38          6           0       -2.399781   -0.570800    4.587956
     39          6           0        2.399781    0.570800    4.587956
     40          6           0        2.399786   -0.570815   -4.587954
     41          1           0       -0.427156    1.930146   -2.159159
     42          1           0       -1.053571    2.268209   -4.587267
     43          1           0       -2.693156    0.686118   -5.627322
     44          1           0       -3.680707   -1.153065   -4.180184
     45          1           0       -0.427161   -1.930143    2.159160
     46          1           0        0.427161    1.930143    2.159160
     47          1           0        0.427156   -1.930146   -2.159159
     48          1           0       -1.053572   -2.268198    4.587270
     49          1           0       -3.680699    1.153082    4.180185
     50          1           0        1.053572    2.268198    4.587270
     51          1           0        3.680699   -1.153082    4.180185
     52          1           0        1.053571   -2.268209   -4.587267
     53          1           0        3.680707    1.153065   -4.180184
     54          1           0       -2.693150   -0.686100    5.627325
     55          1           0        2.693150    0.686100    5.627325
     56          1           0        2.693156   -0.686118   -5.627322
 ---------------------------------------------------------------------

 Normal termination of Gaussian 09 at Sun Nov 29 16:48:35 2020.
